26
	Energy:      14.2207861
O          0.73825        6.00636        0.48516
C          0.19209        5.83074       -0.73727
O         -0.82130        6.43979       -1.04665
H          0.34258        6.60699        1.13256
C          0.83207        4.88384       -1.72167
N          2.19117        5.34059       -2.01253
H          0.24354        4.88108       -2.66838
C          0.87351        3.44545       -1.16660
H          2.15081        6.30133       -2.42534
H          2.62205        4.71321       -2.73023
H          1.48054        3.42333       -0.23426
H          1.36813        2.79128       -1.91827
C         -0.52854        2.88429       -0.87968
H         -1.03062        3.50936       -0.10962
C         -0.45052        1.44088       -0.36825
H         -1.13497        2.90743       -1.81177
H          0.16500        1.41604        0.55759
H          0.02833        0.80587       -1.14555
N         -1.77319        0.92243       -0.07132
C         -2.00083       -0.39790        0.42655
N         -1.03252       -1.22553        0.62183
N         -3.32497       -0.81179        0.71622
H         -4.11734       -0.16901        0.57357
H         -3.51032       -1.75873        1.07807
H         -2.59482        1.53018       -0.21446
H         -0.04723       -0.99583        0.43402
