14
	Energy:      12.6184220
O          2.07502        6.42340        0.55772
C          1.11305        6.54443       -0.38252
O          0.15877        7.28269       -0.18862
H          2.02835        6.90949        1.39312
C          1.21851        5.77169       -1.67274
N          2.44251        6.16352       -2.37090
H          0.34257        6.00530       -2.32103
C          1.23448        4.25928       -1.40256
H          2.40418        7.18751       -2.58316
H          2.49471        5.65992       -3.28643
H          2.10237        3.96808       -0.77191
H          1.34061        3.70179       -2.35737
S         -0.30937        3.69364       -0.61291
H          0.16197        3.96081        0.68696
