19
	Energy:      12.3083391
O          1.41080        6.58592        0.47272
C          0.68452        6.39092       -0.64905
O         -0.34017        7.03110       -0.83244
H          1.13803        7.22509        1.14607
C          1.13952        5.38492       -1.67677
N          2.45764        5.77493       -2.17759
H          0.42131        5.37363       -2.52931
C          1.20962        3.96647       -1.07407
H          2.39182        6.72149       -2.61896
H          2.75619        5.10627       -2.92475
H          1.93113        3.96353       -0.22711
H          1.57873        3.27210       -1.86087
C         -0.16225        3.46394       -0.59103
H         -0.54860        4.14753        0.19495
C         -0.15011        2.06383       -0.01634
H         -0.86877        3.47810       -1.44929
O         -1.20253        1.59275        0.38355
O          0.97067        1.31086        0.07645
H          1.84402        1.60392       -0.21270
