20
	Energy:      11.3498369
O          2.05843        6.29895        0.57627
C          1.08630        6.41388       -0.35403
O          0.12467        7.13897       -0.14643
H          2.01349        6.77906        1.41517
C          1.18814        5.64913       -1.65018
N          2.39886        6.06516       -2.35823
H          0.30300        5.87928       -2.28768
C          1.22860        4.12835       -1.39698
H          2.34448        7.09069       -2.55965
H          2.44827        5.57195       -3.27942
H          2.11554        3.87888       -0.77281
H          1.33349        3.61065       -2.37624
C         -0.04959        3.61124       -0.71101
H         -0.16941        4.10695        0.27586
H         -0.92774        3.86199       -1.34485
C         -0.03731        2.11760       -0.48406
O          0.92001        1.43922       -0.82916
N         -1.09690        1.52112        0.10876
H         -1.10256        0.50322        0.27056
H         -1.91258        2.07583        0.40710
