22
	Energy:      15.9391289
O         -0.41101        5.37655        0.35388
C         -0.62400        4.93987       -0.90579
O         -1.38358        5.55014       -1.64394
H         -0.85624        6.16407        0.69675
C          0.09231        3.71507       -1.40932
N          1.53198        3.98230       -1.37801
H         -0.20509        3.51332       -2.46438
C         -0.21142        2.45144       -0.56547
H          1.74398        4.80917       -1.98355
H          2.04899        3.16801       -1.78319
H          0.07147        2.62461        0.49653
H          0.45751        1.65441       -0.96071
C         -1.65488        1.88317       -0.65163
C         -2.72260        2.78941       -0.01863
C         -1.69768        0.51570        0.04875
H         -1.91406        1.71872       -1.72086
H         -2.48391        2.99182        1.04765
H         -3.71753        2.29736       -0.07183
H         -2.82854        3.74450       -0.56057
H         -1.44541        0.61634        1.12660
H         -0.97517       -0.18452       -0.42257
H         -2.70990        0.06569       -0.04054
