24
	Energy:      13.4698699
O          0.62516        6.14546        0.43800
C          0.17501        5.90814       -0.81307
O         -0.81316        6.49454       -1.22832
H          0.17934        6.77324        1.02407
C          0.89232        4.91891       -1.69743
N          2.26869        5.36967       -1.90381
H          0.38066        4.86568       -2.68659
C          0.89246        3.51069       -1.06853
H          2.25713        6.30829       -2.36631
H          2.75466        4.71101       -2.55513
H          1.41185        3.54165       -0.08480
H          1.45729        2.82414       -1.73726
C         -0.52735        2.95049       -0.88765
H         -1.10924        3.61356       -0.21113
C         -0.49137        1.53991       -0.28824
H         -1.03412        2.91567       -1.87715
H          0.01191        1.57147        0.70311
H          0.08581        0.86805       -0.96116
C         -1.90704        0.98198       -0.11279
N         -1.85691       -0.35504        0.46848
H         -2.42452        0.94157       -1.09771
H         -2.48432        1.64898        0.56476
H         -1.37535       -1.00170       -0.19787
H         -2.83605       -0.69866        0.59391
