29
	Energy:      14.6917180
C          4.65219       -0.37880       -0.80732
O          4.29042       -1.41070       -1.35074
O          5.94699       -0.01058       -0.90026
H          6.27220        0.80340       -0.49066
C          3.67479        0.49984       -0.05937
C          2.22884       -0.02637       -0.01639
C          2.08821       -1.31205        0.82212
C          0.63196       -1.78679        0.96025
C          0.00942       -2.22194       -0.37908
C         -1.39981       -2.81878       -0.22649
C         -2.43836       -1.80594        0.28839
C         -3.83171       -2.38206        0.37392
O         -4.05512       -3.54156        0.06037
O         -4.85232       -1.61087        0.80340
H         -4.71556       -0.68831        1.06088
H         -2.15845       -1.45752        1.30330
H         -2.46492       -0.93234       -0.39800
H         -1.72361       -3.17184       -1.23048
H         -1.35734       -3.69710        0.45465
H          0.65860       -3.00645       -0.82602
H         -0.04112       -1.36734       -1.08531
H          0.62802       -2.66174        1.64664
H          0.03559       -0.97519        1.42651
H          2.47062       -1.10203        1.84508
H          2.69533       -2.13664        0.39546
H          1.59824        0.75884        0.45523
H          1.87275       -0.17929       -1.05636
H          4.03677        0.64761        0.98097
H          3.66918        1.48899       -0.56557

