18
	Energy:      17.4756466
C         -1.11084       -0.86896       -0.14727
C         -0.05307       -1.76982       -0.01240
C          1.26368       -1.30830        0.02975
C          1.53904        0.06625       -0.06290
C          0.46773        0.96987       -0.19872
C         -0.86265        0.51062       -0.24194
C         -1.99034        1.46496       -0.38537
O         -1.77731        2.66616       -0.46781
O         -3.26260        1.01233       -0.42609
H         -4.01222        1.61728       -0.51930
H          0.66958        2.03170       -0.27096
C          2.94062        0.55262       -0.01778
O          3.18321        1.74835       -0.09802
O          3.96026       -0.32407        0.11236
H          4.88117       -0.02820        0.14369
H          2.06507       -2.02880        0.13489
H         -0.25477       -2.83089        0.05977
H         -2.12238       -1.25402       -0.17728

